/*--------------------------------*- C++ -*----------------------------------*\
| =========                 |                                                 |
| \\      /  F ield         | OpenFOAM: The Open Source CFD Toolbox           |
|  \\    /   O peration     | Version:  2406                                  |
|   \\  /    A nd           | Website:  www.openfoam.com                      |
|    \\/     M anipulation  |                                                 |
\*---------------------------------------------------------------------------*/
FoamFile
{
    version     2.0;
    format      ascii;
    arch        "LSB;label=32;scalar=64";
    class       volVectorField;
    location    "0";
    object      C;
}
// * * * * * * * * * * * * * * * * * * * * * * * * * * * * * * * * * * * * * //

dimensions      [0 1 0 0 0 0 0];

internalField   nonuniform List<vector> 
1331
(
(0.0227273 0.0227273 0.522727)
(0.0681818 0.0227273 0.522727)
(0.113636 0.0227273 0.522727)
(0.159091 0.0227273 0.522727)
(0.204545 0.0227273 0.522727)
(0.25 0.0227273 0.522727)
(0.295455 0.0227273 0.522727)
(0.340909 0.0227273 0.522727)
(0.386364 0.0227273 0.522727)
(0.431818 0.0227273 0.522727)
(0.477273 0.0227273 0.522727)
(0.0227273 0.0681818 0.522727)
(0.0681818 0.0681818 0.522727)
(0.113636 0.0681818 0.522727)
(0.159091 0.0681818 0.522727)
(0.204545 0.0681818 0.522727)
(0.25 0.0681818 0.522727)
(0.295455 0.0681818 0.522727)
(0.340909 0.0681818 0.522727)
(0.386364 0.0681818 0.522727)
(0.431818 0.0681818 0.522727)
(0.477273 0.0681818 0.522727)
(0.0227273 0.113636 0.522727)
(0.0681818 0.113636 0.522727)
(0.113636 0.113636 0.522727)
(0.159091 0.113636 0.522727)
(0.204545 0.113636 0.522727)
(0.25 0.113636 0.522727)
(0.295455 0.113636 0.522727)
(0.340909 0.113636 0.522727)
(0.386364 0.113636 0.522727)
(0.431818 0.113636 0.522727)
(0.477273 0.113636 0.522727)
(0.0227273 0.159091 0.522727)
(0.0681818 0.159091 0.522727)
(0.113636 0.159091 0.522727)
(0.159091 0.159091 0.522727)
(0.204545 0.159091 0.522727)
(0.25 0.159091 0.522727)
(0.295455 0.159091 0.522727)
(0.340909 0.159091 0.522727)
(0.386364 0.159091 0.522727)
(0.431818 0.159091 0.522727)
(0.477273 0.159091 0.522727)
(0.0227273 0.204545 0.522727)
(0.0681818 0.204545 0.522727)
(0.113636 0.204545 0.522727)
(0.159091 0.204545 0.522727)
(0.204545 0.204545 0.522727)
(0.25 0.204545 0.522727)
(0.295455 0.204545 0.522727)
(0.340909 0.204545 0.522727)
(0.386364 0.204545 0.522727)
(0.431818 0.204545 0.522727)
(0.477273 0.204545 0.522727)
(0.0227273 0.25 0.522727)
(0.0681818 0.25 0.522727)
(0.113636 0.25 0.522727)
(0.159091 0.25 0.522727)
(0.204545 0.25 0.522727)
(0.25 0.25 0.522727)
(0.295455 0.25 0.522727)
(0.340909 0.25 0.522727)
(0.386364 0.25 0.522727)
(0.431818 0.25 0.522727)
(0.477273 0.25 0.522727)
(0.0227273 0.295455 0.522727)
(0.0681818 0.295455 0.522727)
(0.113636 0.295455 0.522727)
(0.159091 0.295455 0.522727)
(0.204545 0.295455 0.522727)
(0.25 0.295455 0.522727)
(0.295455 0.295455 0.522727)
(0.340909 0.295455 0.522727)
(0.386364 0.295455 0.522727)
(0.431818 0.295455 0.522727)
(0.477273 0.295455 0.522727)
(0.0227273 0.340909 0.522727)
(0.0681818 0.340909 0.522727)
(0.113636 0.340909 0.522727)
(0.159091 0.340909 0.522727)
(0.204545 0.340909 0.522727)
(0.25 0.340909 0.522727)
(0.295455 0.340909 0.522727)
(0.340909 0.340909 0.522727)
(0.386364 0.340909 0.522727)
(0.431818 0.340909 0.522727)
(0.477273 0.340909 0.522727)
(0.0227273 0.386364 0.522727)
(0.0681818 0.386364 0.522727)
(0.113636 0.386364 0.522727)
(0.159091 0.386364 0.522727)
(0.204545 0.386364 0.522727)
(0.25 0.386364 0.522727)
(0.295455 0.386364 0.522727)
(0.340909 0.386364 0.522727)
(0.386364 0.386364 0.522727)
(0.431818 0.386364 0.522727)
(0.477273 0.386364 0.522727)
(0.0227273 0.431818 0.522727)
(0.0681818 0.431818 0.522727)
(0.113636 0.431818 0.522727)
(0.159091 0.431818 0.522727)
(0.204545 0.431818 0.522727)
(0.25 0.431818 0.522727)
(0.295455 0.431818 0.522727)
(0.340909 0.431818 0.522727)
(0.386364 0.431818 0.522727)
(0.431818 0.431818 0.522727)
(0.477273 0.431818 0.522727)
(0.0227273 0.477273 0.522727)
(0.0681818 0.477273 0.522727)
(0.113636 0.477273 0.522727)
(0.159091 0.477273 0.522727)
(0.204545 0.477273 0.522727)
(0.25 0.477273 0.522727)
(0.295455 0.477273 0.522727)
(0.340909 0.477273 0.522727)
(0.386364 0.477273 0.522727)
(0.431818 0.477273 0.522727)
(0.477273 0.477273 0.522727)
(0.0227273 0.0227273 0.568182)
(0.0681818 0.0227273 0.568182)
(0.113636 0.0227273 0.568182)
(0.159091 0.0227273 0.568182)
(0.204545 0.0227273 0.568182)
(0.25 0.0227273 0.568182)
(0.295455 0.0227273 0.568182)
(0.340909 0.0227273 0.568182)
(0.386364 0.0227273 0.568182)
(0.431818 0.0227273 0.568182)
(0.477273 0.0227273 0.568182)
(0.0227273 0.0681818 0.568182)
(0.0681818 0.0681818 0.568182)
(0.113636 0.0681818 0.568182)
(0.159091 0.0681818 0.568182)
(0.204545 0.0681818 0.568182)
(0.25 0.0681818 0.568182)
(0.295455 0.0681818 0.568182)
(0.340909 0.0681818 0.568182)
(0.386364 0.0681818 0.568182)
(0.431818 0.0681818 0.568182)
(0.477273 0.0681818 0.568182)
(0.0227273 0.113636 0.568182)
(0.0681818 0.113636 0.568182)
(0.113636 0.113636 0.568182)
(0.159091 0.113636 0.568182)
(0.204545 0.113636 0.568182)
(0.25 0.113636 0.568182)
(0.295455 0.113636 0.568182)
(0.340909 0.113636 0.568182)
(0.386364 0.113636 0.568182)
(0.431818 0.113636 0.568182)
(0.477273 0.113636 0.568182)
(0.0227273 0.159091 0.568182)
(0.0681818 0.159091 0.568182)
(0.113636 0.159091 0.568182)
(0.159091 0.159091 0.568182)
(0.204545 0.159091 0.568182)
(0.25 0.159091 0.568182)
(0.295455 0.159091 0.568182)
(0.340909 0.159091 0.568182)
(0.386364 0.159091 0.568182)
(0.431818 0.159091 0.568182)
(0.477273 0.159091 0.568182)
(0.0227273 0.204545 0.568182)
(0.0681818 0.204545 0.568182)
(0.113636 0.204545 0.568182)
(0.159091 0.204545 0.568182)
(0.204545 0.204545 0.568182)
(0.25 0.204545 0.568182)
(0.295455 0.204545 0.568182)
(0.340909 0.204545 0.568182)
(0.386364 0.204545 0.568182)
(0.431818 0.204545 0.568182)
(0.477273 0.204545 0.568182)
(0.0227273 0.25 0.568182)
(0.0681818 0.25 0.568182)
(0.113636 0.25 0.568182)
(0.159091 0.25 0.568182)
(0.204545 0.25 0.568182)
(0.25 0.25 0.568182)
(0.295455 0.25 0.568182)
(0.340909 0.25 0.568182)
(0.386364 0.25 0.568182)
(0.431818 0.25 0.568182)
(0.477273 0.25 0.568182)
(0.0227273 0.295455 0.568182)
(0.0681818 0.295455 0.568182)
(0.113636 0.295455 0.568182)
(0.159091 0.295455 0.568182)
(0.204545 0.295455 0.568182)
(0.25 0.295455 0.568182)
(0.295455 0.295455 0.568182)
(0.340909 0.295455 0.568182)
(0.386364 0.295455 0.568182)
(0.431818 0.295455 0.568182)
(0.477273 0.295455 0.568182)
(0.0227273 0.340909 0.568182)
(0.0681818 0.340909 0.568182)
(0.113636 0.340909 0.568182)
(0.159091 0.340909 0.568182)
(0.204545 0.340909 0.568182)
(0.25 0.340909 0.568182)
(0.295455 0.340909 0.568182)
(0.340909 0.340909 0.568182)
(0.386364 0.340909 0.568182)
(0.431818 0.340909 0.568182)
(0.477273 0.340909 0.568182)
(0.0227273 0.386364 0.568182)
(0.0681818 0.386364 0.568182)
(0.113636 0.386364 0.568182)
(0.159091 0.386364 0.568182)
(0.204545 0.386364 0.568182)
(0.25 0.386364 0.568182)
(0.295455 0.386364 0.568182)
(0.340909 0.386364 0.568182)
(0.386364 0.386364 0.568182)
(0.431818 0.386364 0.568182)
(0.477273 0.386364 0.568182)
(0.0227273 0.431818 0.568182)
(0.0681818 0.431818 0.568182)
(0.113636 0.431818 0.568182)
(0.159091 0.431818 0.568182)
(0.204545 0.431818 0.568182)
(0.25 0.431818 0.568182)
(0.295455 0.431818 0.568182)
(0.340909 0.431818 0.568182)
(0.386364 0.431818 0.568182)
(0.431818 0.431818 0.568182)
(0.477273 0.431818 0.568182)
(0.0227273 0.477273 0.568182)
(0.0681818 0.477273 0.568182)
(0.113636 0.477273 0.568182)
(0.159091 0.477273 0.568182)
(0.204545 0.477273 0.568182)
(0.25 0.477273 0.568182)
(0.295455 0.477273 0.568182)
(0.340909 0.477273 0.568182)
(0.386364 0.477273 0.568182)
(0.431818 0.477273 0.568182)
(0.477273 0.477273 0.568182)
(0.0227273 0.0227273 0.613636)
(0.0681818 0.0227273 0.613636)
(0.113636 0.0227273 0.613636)
(0.159091 0.0227273 0.613636)
(0.204545 0.0227273 0.613636)
(0.25 0.0227273 0.613636)
(0.295455 0.0227273 0.613636)
(0.340909 0.0227273 0.613636)
(0.386364 0.0227273 0.613636)
(0.431818 0.0227273 0.613636)
(0.477273 0.0227273 0.613636)
(0.0227273 0.0681818 0.613636)
(0.0681818 0.0681818 0.613636)
(0.113636 0.0681818 0.613636)
(0.159091 0.0681818 0.613636)
(0.204545 0.0681818 0.613636)
(0.25 0.0681818 0.613636)
(0.295455 0.0681818 0.613636)
(0.340909 0.0681818 0.613636)
(0.386364 0.0681818 0.613636)
(0.431818 0.0681818 0.613636)
(0.477273 0.0681818 0.613636)
(0.0227273 0.113636 0.613636)
(0.0681818 0.113636 0.613636)
(0.113636 0.113636 0.613636)
(0.159091 0.113636 0.613636)
(0.204545 0.113636 0.613636)
(0.25 0.113636 0.613636)
(0.295455 0.113636 0.613636)
(0.340909 0.113636 0.613636)
(0.386364 0.113636 0.613636)
(0.431818 0.113636 0.613636)
(0.477273 0.113636 0.613636)
(0.0227273 0.159091 0.613636)
(0.0681818 0.159091 0.613636)
(0.113636 0.159091 0.613636)
(0.159091 0.159091 0.613636)
(0.204545 0.159091 0.613636)
(0.25 0.159091 0.613636)
(0.295455 0.159091 0.613636)
(0.340909 0.159091 0.613636)
(0.386364 0.159091 0.613636)
(0.431818 0.159091 0.613636)
(0.477273 0.159091 0.613636)
(0.0227273 0.204545 0.613636)
(0.0681818 0.204545 0.613636)
(0.113636 0.204545 0.613636)
(0.159091 0.204545 0.613636)
(0.204545 0.204545 0.613636)
(0.25 0.204545 0.613636)
(0.295455 0.204545 0.613636)
(0.340909 0.204545 0.613636)
(0.386364 0.204545 0.613636)
(0.431818 0.204545 0.613636)
(0.477273 0.204545 0.613636)
(0.0227273 0.25 0.613636)
(0.0681818 0.25 0.613636)
(0.113636 0.25 0.613636)
(0.159091 0.25 0.613636)
(0.204545 0.25 0.613636)
(0.25 0.25 0.613636)
(0.295455 0.25 0.613636)
(0.340909 0.25 0.613636)
(0.386364 0.25 0.613636)
(0.431818 0.25 0.613636)
(0.477273 0.25 0.613636)
(0.0227273 0.295455 0.613636)
(0.0681818 0.295455 0.613636)
(0.113636 0.295455 0.613636)
(0.159091 0.295455 0.613636)
(0.204545 0.295455 0.613636)
(0.25 0.295455 0.613636)
(0.295455 0.295455 0.613636)
(0.340909 0.295455 0.613636)
(0.386364 0.295455 0.613636)
(0.431818 0.295455 0.613636)
(0.477273 0.295455 0.613636)
(0.0227273 0.340909 0.613636)
(0.0681818 0.340909 0.613636)
(0.113636 0.340909 0.613636)
(0.159091 0.340909 0.613636)
(0.204545 0.340909 0.613636)
(0.25 0.340909 0.613636)
(0.295455 0.340909 0.613636)
(0.340909 0.340909 0.613636)
(0.386364 0.340909 0.613636)
(0.431818 0.340909 0.613636)
(0.477273 0.340909 0.613636)
(0.0227273 0.386364 0.613636)
(0.0681818 0.386364 0.613636)
(0.113636 0.386364 0.613636)
(0.159091 0.386364 0.613636)
(0.204545 0.386364 0.613636)
(0.25 0.386364 0.613636)
(0.295455 0.386364 0.613636)
(0.340909 0.386364 0.613636)
(0.386364 0.386364 0.613636)
(0.431818 0.386364 0.613636)
(0.477273 0.386364 0.613636)
(0.0227273 0.431818 0.613636)
(0.0681818 0.431818 0.613636)
(0.113636 0.431818 0.613636)
(0.159091 0.431818 0.613636)
(0.204545 0.431818 0.613636)
(0.25 0.431818 0.613636)
(0.295455 0.431818 0.613636)
(0.340909 0.431818 0.613636)
(0.386364 0.431818 0.613636)
(0.431818 0.431818 0.613636)
(0.477273 0.431818 0.613636)
(0.0227273 0.477273 0.613636)
(0.0681818 0.477273 0.613636)
(0.113636 0.477273 0.613636)
(0.159091 0.477273 0.613636)
(0.204545 0.477273 0.613636)
(0.25 0.477273 0.613636)
(0.295455 0.477273 0.613636)
(0.340909 0.477273 0.613636)
(0.386364 0.477273 0.613636)
(0.431818 0.477273 0.613636)
(0.477273 0.477273 0.613636)
(0.0227273 0.0227273 0.659091)
(0.0681818 0.0227273 0.659091)
(0.113636 0.0227273 0.659091)
(0.159091 0.0227273 0.659091)
(0.204545 0.0227273 0.659091)
(0.25 0.0227273 0.659091)
(0.295455 0.0227273 0.659091)
(0.340909 0.0227273 0.659091)
(0.386364 0.0227273 0.659091)
(0.431818 0.0227273 0.659091)
(0.477273 0.0227273 0.659091)
(0.0227273 0.0681818 0.659091)
(0.0681818 0.0681818 0.659091)
(0.113636 0.0681818 0.659091)
(0.159091 0.0681818 0.659091)
(0.204545 0.0681818 0.659091)
(0.25 0.0681818 0.659091)
(0.295455 0.0681818 0.659091)
(0.340909 0.0681818 0.659091)
(0.386364 0.0681818 0.659091)
(0.431818 0.0681818 0.659091)
(0.477273 0.0681818 0.659091)
(0.0227273 0.113636 0.659091)
(0.0681818 0.113636 0.659091)
(0.113636 0.113636 0.659091)
(0.159091 0.113636 0.659091)
(0.204545 0.113636 0.659091)
(0.25 0.113636 0.659091)
(0.295455 0.113636 0.659091)
(0.340909 0.113636 0.659091)
(0.386364 0.113636 0.659091)
(0.431818 0.113636 0.659091)
(0.477273 0.113636 0.659091)
(0.0227273 0.159091 0.659091)
(0.0681818 0.159091 0.659091)
(0.113636 0.159091 0.659091)
(0.159091 0.159091 0.659091)
(0.204545 0.159091 0.659091)
(0.25 0.159091 0.659091)
(0.295455 0.159091 0.659091)
(0.340909 0.159091 0.659091)
(0.386364 0.159091 0.659091)
(0.431818 0.159091 0.659091)
(0.477273 0.159091 0.659091)
(0.0227273 0.204545 0.659091)
(0.0681818 0.204545 0.659091)
(0.113636 0.204545 0.659091)
(0.159091 0.204545 0.659091)
(0.204545 0.204545 0.659091)
(0.25 0.204545 0.659091)
(0.295455 0.204545 0.659091)
(0.340909 0.204545 0.659091)
(0.386364 0.204545 0.659091)
(0.431818 0.204545 0.659091)
(0.477273 0.204545 0.659091)
(0.0227273 0.25 0.659091)
(0.0681818 0.25 0.659091)
(0.113636 0.25 0.659091)
(0.159091 0.25 0.659091)
(0.204545 0.25 0.659091)
(0.25 0.25 0.659091)
(0.295455 0.25 0.659091)
(0.340909 0.25 0.659091)
(0.386364 0.25 0.659091)
(0.431818 0.25 0.659091)
(0.477273 0.25 0.659091)
(0.0227273 0.295455 0.659091)
(0.0681818 0.295455 0.659091)
(0.113636 0.295455 0.659091)
(0.159091 0.295455 0.659091)
(0.204545 0.295455 0.659091)
(0.25 0.295455 0.659091)
(0.295455 0.295455 0.659091)
(0.340909 0.295455 0.659091)
(0.386364 0.295455 0.659091)
(0.431818 0.295455 0.659091)
(0.477273 0.295455 0.659091)
(0.0227273 0.340909 0.659091)
(0.0681818 0.340909 0.659091)
(0.113636 0.340909 0.659091)
(0.159091 0.340909 0.659091)
(0.204545 0.340909 0.659091)
(0.25 0.340909 0.659091)
(0.295455 0.340909 0.659091)
(0.340909 0.340909 0.659091)
(0.386364 0.340909 0.659091)
(0.431818 0.340909 0.659091)
(0.477273 0.340909 0.659091)
(0.0227273 0.386364 0.659091)
(0.0681818 0.386364 0.659091)
(0.113636 0.386364 0.659091)
(0.159091 0.386364 0.659091)
(0.204545 0.386364 0.659091)
(0.25 0.386364 0.659091)
(0.295455 0.386364 0.659091)
(0.340909 0.386364 0.659091)
(0.386364 0.386364 0.659091)
(0.431818 0.386364 0.659091)
(0.477273 0.386364 0.659091)
(0.0227273 0.431818 0.659091)
(0.0681818 0.431818 0.659091)
(0.113636 0.431818 0.659091)
(0.159091 0.431818 0.659091)
(0.204545 0.431818 0.659091)
(0.25 0.431818 0.659091)
(0.295455 0.431818 0.659091)
(0.340909 0.431818 0.659091)
(0.386364 0.431818 0.659091)
(0.431818 0.431818 0.659091)
(0.477273 0.431818 0.659091)
(0.0227273 0.477273 0.659091)
(0.0681818 0.477273 0.659091)
(0.113636 0.477273 0.659091)
(0.159091 0.477273 0.659091)
(0.204545 0.477273 0.659091)
(0.25 0.477273 0.659091)
(0.295455 0.477273 0.659091)
(0.340909 0.477273 0.659091)
(0.386364 0.477273 0.659091)
(0.431818 0.477273 0.659091)
(0.477273 0.477273 0.659091)
(0.0227273 0.0227273 0.704545)
(0.0681818 0.0227273 0.704545)
(0.113636 0.0227273 0.704545)
(0.159091 0.0227273 0.704545)
(0.204545 0.0227273 0.704545)
(0.25 0.0227273 0.704545)
(0.295455 0.0227273 0.704545)
(0.340909 0.0227273 0.704545)
(0.386364 0.0227273 0.704545)
(0.431818 0.0227273 0.704545)
(0.477273 0.0227273 0.704545)
(0.0227273 0.0681818 0.704545)
(0.0681818 0.0681818 0.704545)
(0.113636 0.0681818 0.704545)
(0.159091 0.0681818 0.704545)
(0.204545 0.0681818 0.704545)
(0.25 0.0681818 0.704545)
(0.295455 0.0681818 0.704545)
(0.340909 0.0681818 0.704545)
(0.386364 0.0681818 0.704545)
(0.431818 0.0681818 0.704545)
(0.477273 0.0681818 0.704545)
(0.0227273 0.113636 0.704545)
(0.0681818 0.113636 0.704545)
(0.113636 0.113636 0.704545)
(0.159091 0.113636 0.704545)
(0.204545 0.113636 0.704545)
(0.25 0.113636 0.704545)
(0.295455 0.113636 0.704545)
(0.340909 0.113636 0.704545)
(0.386364 0.113636 0.704545)
(0.431818 0.113636 0.704545)
(0.477273 0.113636 0.704545)
(0.0227273 0.159091 0.704545)
(0.0681818 0.159091 0.704545)
(0.113636 0.159091 0.704545)
(0.159091 0.159091 0.704545)
(0.204545 0.159091 0.704545)
(0.25 0.159091 0.704545)
(0.295455 0.159091 0.704545)
(0.340909 0.159091 0.704545)
(0.386364 0.159091 0.704545)
(0.431818 0.159091 0.704545)
(0.477273 0.159091 0.704545)
(0.0227273 0.204545 0.704545)
(0.0681818 0.204545 0.704545)
(0.113636 0.204545 0.704545)
(0.159091 0.204545 0.704545)
(0.204545 0.204545 0.704545)
(0.25 0.204545 0.704545)
(0.295455 0.204545 0.704545)
(0.340909 0.204545 0.704545)
(0.386364 0.204545 0.704545)
(0.431818 0.204545 0.704545)
(0.477273 0.204545 0.704545)
(0.0227273 0.25 0.704545)
(0.0681818 0.25 0.704545)
(0.113636 0.25 0.704545)
(0.159091 0.25 0.704545)
(0.204545 0.25 0.704545)
(0.25 0.25 0.704545)
(0.295455 0.25 0.704545)
(0.340909 0.25 0.704545)
(0.386364 0.25 0.704545)
(0.431818 0.25 0.704545)
(0.477273 0.25 0.704545)
(0.0227273 0.295455 0.704545)
(0.0681818 0.295455 0.704545)
(0.113636 0.295455 0.704545)
(0.159091 0.295455 0.704545)
(0.204545 0.295455 0.704545)
(0.25 0.295455 0.704545)
(0.295455 0.295455 0.704545)
(0.340909 0.295455 0.704545)
(0.386364 0.295455 0.704545)
(0.431818 0.295455 0.704545)
(0.477273 0.295455 0.704545)
(0.0227273 0.340909 0.704545)
(0.0681818 0.340909 0.704545)
(0.113636 0.340909 0.704545)
(0.159091 0.340909 0.704545)
(0.204545 0.340909 0.704545)
(0.25 0.340909 0.704545)
(0.295455 0.340909 0.704545)
(0.340909 0.340909 0.704545)
(0.386364 0.340909 0.704545)
(0.431818 0.340909 0.704545)
(0.477273 0.340909 0.704545)
(0.0227273 0.386364 0.704545)
(0.0681818 0.386364 0.704545)
(0.113636 0.386364 0.704545)
(0.159091 0.386364 0.704545)
(0.204545 0.386364 0.704545)
(0.25 0.386364 0.704545)
(0.295455 0.386364 0.704545)
(0.340909 0.386364 0.704545)
(0.386364 0.386364 0.704545)
(0.431818 0.386364 0.704545)
(0.477273 0.386364 0.704545)
(0.0227273 0.431818 0.704545)
(0.0681818 0.431818 0.704545)
(0.113636 0.431818 0.704545)
(0.159091 0.431818 0.704545)
(0.204545 0.431818 0.704545)
(0.25 0.431818 0.704545)
(0.295455 0.431818 0.704545)
(0.340909 0.431818 0.704545)
(0.386364 0.431818 0.704545)
(0.431818 0.431818 0.704545)
(0.477273 0.431818 0.704545)
(0.0227273 0.477273 0.704545)
(0.0681818 0.477273 0.704545)
(0.113636 0.477273 0.704545)
(0.159091 0.477273 0.704545)
(0.204545 0.477273 0.704545)
(0.25 0.477273 0.704545)
(0.295455 0.477273 0.704545)
(0.340909 0.477273 0.704545)
(0.386364 0.477273 0.704545)
(0.431818 0.477273 0.704545)
(0.477273 0.477273 0.704545)
(0.0227273 0.0227273 0.75)
(0.0681818 0.0227273 0.75)
(0.113636 0.0227273 0.75)
(0.159091 0.0227273 0.75)
(0.204545 0.0227273 0.75)
(0.25 0.0227273 0.75)
(0.295455 0.0227273 0.75)
(0.340909 0.0227273 0.75)
(0.386364 0.0227273 0.75)
(0.431818 0.0227273 0.75)
(0.477273 0.0227273 0.75)
(0.0227273 0.0681818 0.75)
(0.0681818 0.0681818 0.75)
(0.113636 0.0681818 0.75)
(0.159091 0.0681818 0.75)
(0.204545 0.0681818 0.75)
(0.25 0.0681818 0.75)
(0.295455 0.0681818 0.75)
(0.340909 0.0681818 0.75)
(0.386364 0.0681818 0.75)
(0.431818 0.0681818 0.75)
(0.477273 0.0681818 0.75)
(0.0227273 0.113636 0.75)
(0.0681818 0.113636 0.75)
(0.113636 0.113636 0.75)
(0.159091 0.113636 0.75)
(0.204545 0.113636 0.75)
(0.25 0.113636 0.75)
(0.295455 0.113636 0.75)
(0.340909 0.113636 0.75)
(0.386364 0.113636 0.75)
(0.431818 0.113636 0.75)
(0.477273 0.113636 0.75)
(0.0227273 0.159091 0.75)
(0.0681818 0.159091 0.75)
(0.113636 0.159091 0.75)
(0.159091 0.159091 0.75)
(0.204545 0.159091 0.75)
(0.25 0.159091 0.75)
(0.295455 0.159091 0.75)
(0.340909 0.159091 0.75)
(0.386364 0.159091 0.75)
(0.431818 0.159091 0.75)
(0.477273 0.159091 0.75)
(0.0227273 0.204545 0.75)
(0.0681818 0.204545 0.75)
(0.113636 0.204545 0.75)
(0.159091 0.204545 0.75)
(0.204545 0.204545 0.75)
(0.25 0.204545 0.75)
(0.295455 0.204545 0.75)
(0.340909 0.204545 0.75)
(0.386364 0.204545 0.75)
(0.431818 0.204545 0.75)
(0.477273 0.204545 0.75)
(0.0227273 0.25 0.75)
(0.0681818 0.25 0.75)
(0.113636 0.25 0.75)
(0.159091 0.25 0.75)
(0.204545 0.25 0.75)
(0.25 0.25 0.75)
(0.295455 0.25 0.75)
(0.340909 0.25 0.75)
(0.386364 0.25 0.75)
(0.431818 0.25 0.75)
(0.477273 0.25 0.75)
(0.0227273 0.295455 0.75)
(0.0681818 0.295455 0.75)
(0.113636 0.295455 0.75)
(0.159091 0.295455 0.75)
(0.204545 0.295455 0.75)
(0.25 0.295455 0.75)
(0.295455 0.295455 0.75)
(0.340909 0.295455 0.75)
(0.386364 0.295455 0.75)
(0.431818 0.295455 0.75)
(0.477273 0.295455 0.75)
(0.0227273 0.340909 0.75)
(0.0681818 0.340909 0.75)
(0.113636 0.340909 0.75)
(0.159091 0.340909 0.75)
(0.204545 0.340909 0.75)
(0.25 0.340909 0.75)
(0.295455 0.340909 0.75)
(0.340909 0.340909 0.75)
(0.386364 0.340909 0.75)
(0.431818 0.340909 0.75)
(0.477273 0.340909 0.75)
(0.0227273 0.386364 0.75)
(0.0681818 0.386364 0.75)
(0.113636 0.386364 0.75)
(0.159091 0.386364 0.75)
(0.204545 0.386364 0.75)
(0.25 0.386364 0.75)
(0.295455 0.386364 0.75)
(0.340909 0.386364 0.75)
(0.386364 0.386364 0.75)
(0.431818 0.386364 0.75)
(0.477273 0.386364 0.75)
(0.0227273 0.431818 0.75)
(0.0681818 0.431818 0.75)
(0.113636 0.431818 0.75)
(0.159091 0.431818 0.75)
(0.204545 0.431818 0.75)
(0.25 0.431818 0.75)
(0.295455 0.431818 0.75)
(0.340909 0.431818 0.75)
(0.386364 0.431818 0.75)
(0.431818 0.431818 0.75)
(0.477273 0.431818 0.75)
(0.0227273 0.477273 0.75)
(0.0681818 0.477273 0.75)
(0.113636 0.477273 0.75)
(0.159091 0.477273 0.75)
(0.204545 0.477273 0.75)
(0.25 0.477273 0.75)
(0.295455 0.477273 0.75)
(0.340909 0.477273 0.75)
(0.386364 0.477273 0.75)
(0.431818 0.477273 0.75)
(0.477273 0.477273 0.75)
(0.0227273 0.0227273 0.795455)
(0.0681818 0.0227273 0.795455)
(0.113636 0.0227273 0.795455)
(0.159091 0.0227273 0.795455)
(0.204545 0.0227273 0.795455)
(0.25 0.0227273 0.795455)
(0.295455 0.0227273 0.795455)
(0.340909 0.0227273 0.795455)
(0.386364 0.0227273 0.795455)
(0.431818 0.0227273 0.795455)
(0.477273 0.0227273 0.795455)
(0.0227273 0.0681818 0.795455)
(0.0681818 0.0681818 0.795455)
(0.113636 0.0681818 0.795455)
(0.159091 0.0681818 0.795455)
(0.204545 0.0681818 0.795455)
(0.25 0.0681818 0.795455)
(0.295455 0.0681818 0.795455)
(0.340909 0.0681818 0.795455)
(0.386364 0.0681818 0.795455)
(0.431818 0.0681818 0.795455)
(0.477273 0.0681818 0.795455)
(0.0227273 0.113636 0.795455)
(0.0681818 0.113636 0.795455)
(0.113636 0.113636 0.795455)
(0.159091 0.113636 0.795455)
(0.204545 0.113636 0.795455)
(0.25 0.113636 0.795455)
(0.295455 0.113636 0.795455)
(0.340909 0.113636 0.795455)
(0.386364 0.113636 0.795455)
(0.431818 0.113636 0.795455)
(0.477273 0.113636 0.795455)
(0.0227273 0.159091 0.795455)
(0.0681818 0.159091 0.795455)
(0.113636 0.159091 0.795455)
(0.159091 0.159091 0.795455)
(0.204545 0.159091 0.795455)
(0.25 0.159091 0.795455)
(0.295455 0.159091 0.795455)
(0.340909 0.159091 0.795455)
(0.386364 0.159091 0.795455)
(0.431818 0.159091 0.795455)
(0.477273 0.159091 0.795455)
(0.0227273 0.204545 0.795455)
(0.0681818 0.204545 0.795455)
(0.113636 0.204545 0.795455)
(0.159091 0.204545 0.795455)
(0.204545 0.204545 0.795455)
(0.25 0.204545 0.795455)
(0.295455 0.204545 0.795455)
(0.340909 0.204545 0.795455)
(0.386364 0.204545 0.795455)
(0.431818 0.204545 0.795455)
(0.477273 0.204545 0.795455)
(0.0227273 0.25 0.795455)
(0.0681818 0.25 0.795455)
(0.113636 0.25 0.795455)
(0.159091 0.25 0.795455)
(0.204545 0.25 0.795455)
(0.25 0.25 0.795455)
(0.295455 0.25 0.795455)
(0.340909 0.25 0.795455)
(0.386364 0.25 0.795455)
(0.431818 0.25 0.795455)
(0.477273 0.25 0.795455)
(0.0227273 0.295455 0.795455)
(0.0681818 0.295455 0.795455)
(0.113636 0.295455 0.795455)
(0.159091 0.295455 0.795455)
(0.204545 0.295455 0.795455)
(0.25 0.295455 0.795455)
(0.295455 0.295455 0.795455)
(0.340909 0.295455 0.795455)
(0.386364 0.295455 0.795455)
(0.431818 0.295455 0.795455)
(0.477273 0.295455 0.795455)
(0.0227273 0.340909 0.795455)
(0.0681818 0.340909 0.795455)
(0.113636 0.340909 0.795455)
(0.159091 0.340909 0.795455)
(0.204545 0.340909 0.795455)
(0.25 0.340909 0.795455)
(0.295455 0.340909 0.795455)
(0.340909 0.340909 0.795455)
(0.386364 0.340909 0.795455)
(0.431818 0.340909 0.795455)
(0.477273 0.340909 0.795455)
(0.0227273 0.386364 0.795455)
(0.0681818 0.386364 0.795455)
(0.113636 0.386364 0.795455)
(0.159091 0.386364 0.795455)
(0.204545 0.386364 0.795455)
(0.25 0.386364 0.795455)
(0.295455 0.386364 0.795455)
(0.340909 0.386364 0.795455)
(0.386364 0.386364 0.795455)
(0.431818 0.386364 0.795455)
(0.477273 0.386364 0.795455)
(0.0227273 0.431818 0.795455)
(0.0681818 0.431818 0.795455)
(0.113636 0.431818 0.795455)
(0.159091 0.431818 0.795455)
(0.204545 0.431818 0.795455)
(0.25 0.431818 0.795455)
(0.295455 0.431818 0.795455)
(0.340909 0.431818 0.795455)
(0.386364 0.431818 0.795455)
(0.431818 0.431818 0.795455)
(0.477273 0.431818 0.795455)
(0.0227273 0.477273 0.795455)
(0.0681818 0.477273 0.795455)
(0.113636 0.477273 0.795455)
(0.159091 0.477273 0.795455)
(0.204545 0.477273 0.795455)
(0.25 0.477273 0.795455)
(0.295455 0.477273 0.795455)
(0.340909 0.477273 0.795455)
(0.386364 0.477273 0.795455)
(0.431818 0.477273 0.795455)
(0.477273 0.477273 0.795455)
(0.0227273 0.0227273 0.840909)
(0.0681818 0.0227273 0.840909)
(0.113636 0.0227273 0.840909)
(0.159091 0.0227273 0.840909)
(0.204545 0.0227273 0.840909)
(0.25 0.0227273 0.840909)
(0.295455 0.0227273 0.840909)
(0.340909 0.0227273 0.840909)
(0.386364 0.0227273 0.840909)
(0.431818 0.0227273 0.840909)
(0.477273 0.0227273 0.840909)
(0.0227273 0.0681818 0.840909)
(0.0681818 0.0681818 0.840909)
(0.113636 0.0681818 0.840909)
(0.159091 0.0681818 0.840909)
(0.204545 0.0681818 0.840909)
(0.25 0.0681818 0.840909)
(0.295455 0.0681818 0.840909)
(0.340909 0.0681818 0.840909)
(0.386364 0.0681818 0.840909)
(0.431818 0.0681818 0.840909)
(0.477273 0.0681818 0.840909)
(0.0227273 0.113636 0.840909)
(0.0681818 0.113636 0.840909)
(0.113636 0.113636 0.840909)
(0.159091 0.113636 0.840909)
(0.204545 0.113636 0.840909)
(0.25 0.113636 0.840909)
(0.295455 0.113636 0.840909)
(0.340909 0.113636 0.840909)
(0.386364 0.113636 0.840909)
(0.431818 0.113636 0.840909)
(0.477273 0.113636 0.840909)
(0.0227273 0.159091 0.840909)
(0.0681818 0.159091 0.840909)
(0.113636 0.159091 0.840909)
(0.159091 0.159091 0.840909)
(0.204545 0.159091 0.840909)
(0.25 0.159091 0.840909)
(0.295455 0.159091 0.840909)
(0.340909 0.159091 0.840909)
(0.386364 0.159091 0.840909)
(0.431818 0.159091 0.840909)
(0.477273 0.159091 0.840909)
(0.0227273 0.204545 0.840909)
(0.0681818 0.204545 0.840909)
(0.113636 0.204545 0.840909)
(0.159091 0.204545 0.840909)
(0.204545 0.204545 0.840909)
(0.25 0.204545 0.840909)
(0.295455 0.204545 0.840909)
(0.340909 0.204545 0.840909)
(0.386364 0.204545 0.840909)
(0.431818 0.204545 0.840909)
(0.477273 0.204545 0.840909)
(0.0227273 0.25 0.840909)
(0.0681818 0.25 0.840909)
(0.113636 0.25 0.840909)
(0.159091 0.25 0.840909)
(0.204545 0.25 0.840909)
(0.25 0.25 0.840909)
(0.295455 0.25 0.840909)
(0.340909 0.25 0.840909)
(0.386364 0.25 0.840909)
(0.431818 0.25 0.840909)
(0.477273 0.25 0.840909)
(0.0227273 0.295455 0.840909)
(0.0681818 0.295455 0.840909)
(0.113636 0.295455 0.840909)
(0.159091 0.295455 0.840909)
(0.204545 0.295455 0.840909)
(0.25 0.295455 0.840909)
(0.295455 0.295455 0.840909)
(0.340909 0.295455 0.840909)
(0.386364 0.295455 0.840909)
(0.431818 0.295455 0.840909)
(0.477273 0.295455 0.840909)
(0.0227273 0.340909 0.840909)
(0.0681818 0.340909 0.840909)
(0.113636 0.340909 0.840909)
(0.159091 0.340909 0.840909)
(0.204545 0.340909 0.840909)
(0.25 0.340909 0.840909)
(0.295455 0.340909 0.840909)
(0.340909 0.340909 0.840909)
(0.386364 0.340909 0.840909)
(0.431818 0.340909 0.840909)
(0.477273 0.340909 0.840909)
(0.0227273 0.386364 0.840909)
(0.0681818 0.386364 0.840909)
(0.113636 0.386364 0.840909)
(0.159091 0.386364 0.840909)
(0.204545 0.386364 0.840909)
(0.25 0.386364 0.840909)
(0.295455 0.386364 0.840909)
(0.340909 0.386364 0.840909)
(0.386364 0.386364 0.840909)
(0.431818 0.386364 0.840909)
(0.477273 0.386364 0.840909)
(0.0227273 0.431818 0.840909)
(0.0681818 0.431818 0.840909)
(0.113636 0.431818 0.840909)
(0.159091 0.431818 0.840909)
(0.204545 0.431818 0.840909)
(0.25 0.431818 0.840909)
(0.295455 0.431818 0.840909)
(0.340909 0.431818 0.840909)
(0.386364 0.431818 0.840909)
(0.431818 0.431818 0.840909)
(0.477273 0.431818 0.840909)
(0.0227273 0.477273 0.840909)
(0.0681818 0.477273 0.840909)
(0.113636 0.477273 0.840909)
(0.159091 0.477273 0.840909)
(0.204545 0.477273 0.840909)
(0.25 0.477273 0.840909)
(0.295455 0.477273 0.840909)
(0.340909 0.477273 0.840909)
(0.386364 0.477273 0.840909)
(0.431818 0.477273 0.840909)
(0.477273 0.477273 0.840909)
(0.0227273 0.0227273 0.886364)
(0.0681818 0.0227273 0.886364)
(0.113636 0.0227273 0.886364)
(0.159091 0.0227273 0.886364)
(0.204545 0.0227273 0.886364)
(0.25 0.0227273 0.886364)
(0.295455 0.0227273 0.886364)
(0.340909 0.0227273 0.886364)
(0.386364 0.0227273 0.886364)
(0.431818 0.0227273 0.886364)
(0.477273 0.0227273 0.886364)
(0.0227273 0.0681818 0.886364)
(0.0681818 0.0681818 0.886364)
(0.113636 0.0681818 0.886364)
(0.159091 0.0681818 0.886364)
(0.204545 0.0681818 0.886364)
(0.25 0.0681818 0.886364)
(0.295455 0.0681818 0.886364)
(0.340909 0.0681818 0.886364)
(0.386364 0.0681818 0.886364)
(0.431818 0.0681818 0.886364)
(0.477273 0.0681818 0.886364)
(0.0227273 0.113636 0.886364)
(0.0681818 0.113636 0.886364)
(0.113636 0.113636 0.886364)
(0.159091 0.113636 0.886364)
(0.204545 0.113636 0.886364)
(0.25 0.113636 0.886364)
(0.295455 0.113636 0.886364)
(0.340909 0.113636 0.886364)
(0.386364 0.113636 0.886364)
(0.431818 0.113636 0.886364)
(0.477273 0.113636 0.886364)
(0.0227273 0.159091 0.886364)
(0.0681818 0.159091 0.886364)
(0.113636 0.159091 0.886364)
(0.159091 0.159091 0.886364)
(0.204545 0.159091 0.886364)
(0.25 0.159091 0.886364)
(0.295455 0.159091 0.886364)
(0.340909 0.159091 0.886364)
(0.386364 0.159091 0.886364)
(0.431818 0.159091 0.886364)
(0.477273 0.159091 0.886364)
(0.0227273 0.204545 0.886364)
(0.0681818 0.204545 0.886364)
(0.113636 0.204545 0.886364)
(0.159091 0.204545 0.886364)
(0.204545 0.204545 0.886364)
(0.25 0.204545 0.886364)
(0.295455 0.204545 0.886364)
(0.340909 0.204545 0.886364)
(0.386364 0.204545 0.886364)
(0.431818 0.204545 0.886364)
(0.477273 0.204545 0.886364)
(0.0227273 0.25 0.886364)
(0.0681818 0.25 0.886364)
(0.113636 0.25 0.886364)
(0.159091 0.25 0.886364)
(0.204545 0.25 0.886364)
(0.25 0.25 0.886364)
(0.295455 0.25 0.886364)
(0.340909 0.25 0.886364)
(0.386364 0.25 0.886364)
(0.431818 0.25 0.886364)