/*--------------------------------*- C++ -*----------------------------------*\
| =========                 |                                                 |
| \\      /  F ield         | OpenFOAM: The Open Source CFD Toolbox           |
|  \\    /   O peration     | Version:  2406                                  |
|   \\  /    A nd           | Website:  www.openfoam.com                      |
|    \\/     M anipulation  |                                                 |
\*---------------------------------------------------------------------------*/
FoamFile
{
    version     2.0;
    format      ascii;
    arch        "LSB;label=32;scalar=64";
    class       volVectorField;
    location    "0";
    object      C;
}
// * * * * * * * * * * * * * * * * * * * * * * * * * * * * * * * * * * * * * //

dimensions      [0 1 0 0 0 0 0];

internalField   nonuniform List<vector> 
1331
(
(0.522727 0.522727 0.522727)
(0.568182 0.522727 0.522727)
(0.613636 0.522727 0.522727)
(0.659091 0.522727 0.522727)
(0.704545 0.522727 0.522727)
(0.75 0.522727 0.522727)
(0.795455 0.522727 0.522727)
(0.840909 0.522727 0.522727)
(0.886364 0.522727 0.522727)
(0.931818 0.522727 0.522727)
(0.977273 0.522727 0.522727)
(0.522727 0.568182 0.522727)
(0.568182 0.568182 0.522727)
(0.613636 0.568182 0.522727)
(0.659091 0.568182 0.522727)
(0.704545 0.568182 0.522727)
(0.75 0.568182 0.522727)
(0.795455 0.568182 0.522727)
(0.840909 0.568182 0.522727)
(0.886364 0.568182 0.522727)
(0.931818 0.568182 0.522727)
(0.977273 0.568182 0.522727)
(0.522727 0.613636 0.522727)
(0.568182 0.613636 0.522727)
(0.613636 0.613636 0.522727)
(0.659091 0.613636 0.522727)
(0.704545 0.613636 0.522727)
(0.75 0.613636 0.522727)
(0.795455 0.613636 0.522727)
(0.840909 0.613636 0.522727)
(0.886364 0.613636 0.522727)
(0.931818 0.613636 0.522727)
(0.977273 0.613636 0.522727)
(0.522727 0.659091 0.522727)
(0.568182 0.659091 0.522727)
(0.613636 0.659091 0.522727)
(0.659091 0.659091 0.522727)
(0.704545 0.659091 0.522727)
(0.75 0.659091 0.522727)
(0.795455 0.659091 0.522727)
(0.840909 0.659091 0.522727)
(0.886364 0.659091 0.522727)
(0.931818 0.659091 0.522727)
(0.977273 0.659091 0.522727)
(0.522727 0.704545 0.522727)
(0.568182 0.704545 0.522727)
(0.613636 0.704545 0.522727)
(0.659091 0.704545 0.522727)
(0.704545 0.704545 0.522727)
(0.75 0.704545 0.522727)
(0.795455 0.704545 0.522727)
(0.840909 0.704545 0.522727)
(0.886364 0.704545 0.522727)
(0.931818 0.704545 0.522727)
(0.977273 0.704545 0.522727)
(0.522727 0.75 0.522727)
(0.568182 0.75 0.522727)
(0.613636 0.75 0.522727)
(0.659091 0.75 0.522727)
(0.704545 0.75 0.522727)
(0.75 0.75 0.522727)
(0.795455 0.75 0.522727)
(0.840909 0.75 0.522727)
(0.886364 0.75 0.522727)
(0.931818 0.75 0.522727)
(0.977273 0.75 0.522727)
(0.522727 0.795455 0.522727)
(0.568182 0.795455 0.522727)
(0.613636 0.795455 0.522727)
(0.659091 0.795455 0.522727)
(0.704545 0.795455 0.522727)
(0.75 0.795455 0.522727)
(0.795455 0.795455 0.522727)
(0.840909 0.795455 0.522727)
(0.886364 0.795455 0.522727)
(0.931818 0.795455 0.522727)
(0.977273 0.795455 0.522727)
(0.522727 0.840909 0.522727)
(0.568182 0.840909 0.522727)
(0.613636 0.840909 0.522727)
(0.659091 0.840909 0.522727)
(0.704545 0.840909 0.522727)
(0.75 0.840909 0.522727)
(0.795455 0.840909 0.522727)
(0.840909 0.840909 0.522727)
(0.886364 0.840909 0.522727)
(0.931818 0.840909 0.522727)
(0.977273 0.840909 0.522727)
(0.522727 0.886364 0.522727)
(0.568182 0.886364 0.522727)
(0.613636 0.886364 0.522727)
(0.659091 0.886364 0.522727)
(0.704545 0.886364 0.522727)
(0.75 0.886364 0.522727)
(0.795455 0.886364 0.522727)
(0.840909 0.886364 0.522727)
(0.886364 0.886364 0.522727)
(0.931818 0.886364 0.522727)
(0.977273 0.886364 0.522727)
(0.522727 0.931818 0.522727)
(0.568182 0.931818 0.522727)
(0.613636 0.931818 0.522727)
(0.659091 0.931818 0.522727)
(0.704545 0.931818 0.522727)
(0.75 0.931818 0.522727)
(0.795455 0.931818 0.522727)
(0.840909 0.931818 0.522727)
(0.886364 0.931818 0.522727)
(0.931818 0.931818 0.522727)
(0.977273 0.931818 0.522727)
(0.522727 0.977273 0.522727)
(0.568182 0.977273 0.522727)
(0.613636 0.977273 0.522727)
(0.659091 0.977273 0.522727)
(0.704545 0.977273 0.522727)
(0.75 0.977273 0.522727)
(0.795455 0.977273 0.522727)
(0.840909 0.977273 0.522727)
(0.886364 0.977273 0.522727)
(0.931818 0.977273 0.522727)
(0.977273 0.977273 0.522727)
(0.522727 0.522727 0.568182)
(0.568182 0.522727 0.568182)
(0.613636 0.522727 0.568182)
(0.659091 0.522727 0.568182)
(0.704545 0.522727 0.568182)
(0.75 0.522727 0.568182)
(0.795455 0.522727 0.568182)
(0.840909 0.522727 0.568182)
(0.886364 0.522727 0.568182)
(0.931818 0.522727 0.568182)
(0.977273 0.522727 0.568182)
(0.522727 0.568182 0.568182)
(0.568182 0.568182 0.568182)
(0.613636 0.568182 0.568182)
(0.659091 0.568182 0.568182)
(0.704545 0.568182 0.568182)
(0.75 0.568182 0.568182)
(0.795455 0.568182 0.568182)
(0.840909 0.568182 0.568182)
(0.886364 0.568182 0.568182)
(0.931818 0.568182 0.568182)
(0.977273 0.568182 0.568182)
(0.522727 0.613636 0.568182)
(0.568182 0.613636 0.568182)
(0.613636 0.613636 0.568182)
(0.659091 0.613636 0.568182)
(0.704545 0.613636 0.568182)
(0.75 0.613636 0.568182)
(0.795455 0.613636 0.568182)
(0.840909 0.613636 0.568182)
(0.886364 0.613636 0.568182)
(0.931818 0.613636 0.568182)
(0.977273 0.613636 0.568182)
(0.522727 0.659091 0.568182)
(0.568182 0.659091 0.568182)
(0.613636 0.659091 0.568182)
(0.659091 0.659091 0.568182)
(0.704545 0.659091 0.568182)
(0.75 0.659091 0.568182)
(0.795455 0.659091 0.568182)
(0.840909 0.659091 0.568182)
(0.886364 0.659091 0.568182)
(0.931818 0.659091 0.568182)
(0.977273 0.659091 0.568182)
(0.522727 0.704545 0.568182)
(0.568182 0.704545 0.568182)
(0.613636 0.704545 0.568182)
(0.659091 0.704545 0.568182)
(0.704545 0.704545 0.568182)
(0.75 0.704545 0.568182)
(0.795455 0.704545 0.568182)
(0.840909 0.704545 0.568182)
(0.886364 0.704545 0.568182)
(0.931818 0.704545 0.568182)
(0.977273 0.704545 0.568182)
(0.522727 0.75 0.568182)
(0.568182 0.75 0.568182)
(0.613636 0.75 0.568182)
(0.659091 0.75 0.568182)
(0.704545 0.75 0.568182)
(0.75 0.75 0.568182)
(0.795455 0.75 0.568182)
(0.840909 0.75 0.568182)
(0.886364 0.75 0.568182)
(0.931818 0.75 0.568182)
(0.977273 0.75 0.568182)
(0.522727 0.795455 0.568182)
(0.568182 0.795455 0.568182)
(0.613636 0.795455 0.568182)
(0.659091 0.795455 0.568182)
(0.704545 0.795455 0.568182)
(0.75 0.795455 0.568182)
(0.795455 0.795455 0.568182)
(0.840909 0.795455 0.568182)
(0.886364 0.795455 0.568182)
(0.931818 0.795455 0.568182)
(0.977273 0.795455 0.568182)
(0.522727 0.840909 0.568182)
(0.568182 0.840909 0.568182)
(0.613636 0.840909 0.568182)
(0.659091 0.840909 0.568182)
(0.704545 0.840909 0.568182)
(0.75 0.840909 0.568182)
(0.795455 0.840909 0.568182)
(0.840909 0.840909 0.568182)
(0.886364 0.840909 0.568182)
(0.931818 0.840909 0.568182)
(0.977273 0.840909 0.568182)
(0.522727 0.886364 0.568182)
(0.568182 0.886364 0.568182)
(0.613636 0.886364 0.568182)
(0.659091 0.886364 0.568182)
(0.704545 0.886364 0.568182)
(0.75 0.886364 0.568182)
(0.795455 0.886364 0.568182)
(0.840909 0.886364 0.568182)
(0.886364 0.886364 0.568182)
(0.931818 0.886364 0.568182)
(0.977273 0.886364 0.568182)
(0.522727 0.931818 0.568182)
(0.568182 0.931818 0.568182)
(0.613636 0.931818 0.568182)
(0.659091 0.931818 0.568182)
(0.704545 0.931818 0.568182)
(0.75 0.931818 0.568182)
(0.795455 0.931818 0.568182)
(0.840909 0.931818 0.568182)
(0.886364 0.931818 0.568182)
(0.931818 0.931818 0.568182)
(0.977273 0.931818 0.568182)
(0.522727 0.977273 0.568182)
(0.568182 0.977273 0.568182)
(0.613636 0.977273 0.568182)
(0.659091 0.977273 0.568182)
(0.704545 0.977273 0.568182)
(0.75 0.977273 0.568182)
(0.795455 0.977273 0.568182)
(0.840909 0.977273 0.568182)
(0.886364 0.977273 0.568182)
(0.931818 0.977273 0.568182)
(0.977273 0.977273 0.568182)
(0.522727 0.522727 0.613636)
(0.568182 0.522727 0.613636)
(0.613636 0.522727 0.613636)
(0.659091 0.522727 0.613636)
(0.704545 0.522727 0.613636)
(0.75 0.522727 0.613636)
(0.795455 0.522727 0.613636)
(0.840909 0.522727 0.613636)
(0.886364 0.522727 0.613636)
(0.931818 0.522727 0.613636)
(0.977273 0.522727 0.613636)
(0.522727 0.568182 0.613636)
(0.568182 0.568182 0.613636)
(0.613636 0.568182 0.613636)
(0.659091 0.568182 0.613636)
(0.704545 0.568182 0.613636)
(0.75 0.568182 0.613636)
(0.795455 0.568182 0.613636)
(0.840909 0.568182 0.613636)
(0.886364 0.568182 0.613636)
(0.931818 0.568182 0.613636)
(0.977273 0.568182 0.613636)
(0.522727 0.613636 0.613636)
(0.568182 0.613636 0.613636)
(0.613636 0.613636 0.613636)
(0.659091 0.613636 0.613636)
(0.704545 0.613636 0.613636)
(0.75 0.613636 0.613636)
(0.795455 0.613636 0.613636)
(0.840909 0.613636 0.613636)
(0.886364 0.613636 0.613636)
(0.931818 0.613636 0.613636)
(0.977273 0.613636 0.613636)
(0.522727 0.659091 0.613636)
(0.568182 0.659091 0.613636)
(0.613636 0.659091 0.613636)
(0.659091 0.659091 0.613636)
(0.704545 0.659091 0.613636)
(0.75 0.659091 0.613636)
(0.795455 0.659091 0.613636)
(0.840909 0.659091 0.613636)
(0.886364 0.659091 0.613636)
(0.931818 0.659091 0.613636)
(0.977273 0.659091 0.613636)
(0.522727 0.704545 0.613636)
(0.568182 0.704545 0.613636)
(0.613636 0.704545 0.613636)
(0.659091 0.704545 0.613636)
(0.704545 0.704545 0.613636)
(0.75 0.704545 0.613636)
(0.795455 0.704545 0.613636)
(0.840909 0.704545 0.613636)
(0.886364 0.704545 0.613636)
(0.931818 0.704545 0.613636)
(0.977273 0.704545 0.613636)
(0.522727 0.75 0.613636)
(0.568182 0.75 0.613636)
(0.613636 0.75 0.613636)
(0.659091 0.75 0.613636)
(0.704545 0.75 0.613636)
(0.75 0.75 0.613636)
(0.795455 0.75 0.613636)
(0.840909 0.75 0.613636)
(0.886364 0.75 0.613636)
(0.931818 0.75 0.613636)
(0.977273 0.75 0.613636)
(0.522727 0.795455 0.613636)
(0.568182 0.795455 0.613636)
(0.613636 0.795455 0.613636)
(0.659091 0.795455 0.613636)
(0.704545 0.795455 0.613636)
(0.75 0.795455 0.613636)
(0.795455 0.795455 0.613636)
(0.840909 0.795455 0.613636)
(0.886364 0.795455 0.613636)
(0.931818 0.795455 0.613636)
(0.977273 0.795455 0.613636)
(0.522727 0.840909 0.613636)
(0.568182 0.840909 0.613636)
(0.613636 0.840909 0.613636)
(0.659091 0.840909 0.613636)
(0.704545 0.840909 0.613636)
(0.75 0.840909 0.613636)
(0.795455 0.840909 0.613636)
(0.840909 0.840909 0.613636)
(0.886364 0.840909 0.613636)
(0.931818 0.840909 0.613636)
(0.977273 0.840909 0.613636)
(0.522727 0.886364 0.613636)
(0.568182 0.886364 0.613636)
(0.613636 0.886364 0.613636)
(0.659091 0.886364 0.613636)
(0.704545 0.886364 0.613636)
(0.75 0.886364 0.613636)
(0.795455 0.886364 0.613636)
(0.840909 0.886364 0.613636)
(0.886364 0.886364 0.613636)
(0.931818 0.886364 0.613636)
(0.977273 0.886364 0.613636)
(0.522727 0.931818 0.613636)
(0.568182 0.931818 0.613636)
(0.613636 0.931818 0.613636)
(0.659091 0.931818 0.613636)
(0.704545 0.931818 0.613636)
(0.75 0.931818 0.613636)
(0.795455 0.931818 0.613636)
(0.840909 0.931818 0.613636)
(0.886364 0.931818 0.613636)
(0.931818 0.931818 0.613636)
(0.977273 0.931818 0.613636)
(0.522727 0.977273 0.613636)
(0.568182 0.977273 0.613636)
(0.613636 0.977273 0.613636)
(0.659091 0.977273 0.613636)
(0.704545 0.977273 0.613636)
(0.75 0.977273 0.613636)
(0.795455 0.977273 0.613636)
(0.840909 0.977273 0.613636)
(0.886364 0.977273 0.613636)
(0.931818 0.977273 0.613636)
(0.977273 0.977273 0.613636)
(0.522727 0.522727 0.659091)
(0.568182 0.522727 0.659091)
(0.613636 0.522727 0.659091)
(0.659091 0.522727 0.659091)
(0.704545 0.522727 0.659091)
(0.75 0.522727 0.659091)
(0.795455 0.522727 0.659091)
(0.840909 0.522727 0.659091)
(0.886364 0.522727 0.659091)
(0.931818 0.522727 0.659091)
(0.977273 0.522727 0.659091)
(0.522727 0.568182 0.659091)
(0.568182 0.568182 0.659091)
(0.613636 0.568182 0.659091)
(0.659091 0.568182 0.659091)
(0.704545 0.568182 0.659091)
(0.75 0.568182 0.659091)
(0.795455 0.568182 0.659091)
(0.840909 0.568182 0.659091)
(0.886364 0.568182 0.659091)
(0.931818 0.568182 0.659091)
(0.977273 0.568182 0.659091)
(0.522727 0.613636 0.659091)
(0.568182 0.613636 0.659091)
(0.613636 0.613636 0.659091)
(0.659091 0.613636 0.659091)
(0.704545 0.613636 0.659091)
(0.75 0.613636 0.659091)
(0.795455 0.613636 0.659091)
(0.840909 0.613636 0.659091)
(0.886364 0.613636 0.659091)
(0.931818 0.613636 0.659091)
(0.977273 0.613636 0.659091)
(0.522727 0.659091 0.659091)
(0.568182 0.659091 0.659091)
(0.613636 0.659091 0.659091)
(0.659091 0.659091 0.659091)
(0.704545 0.659091 0.659091)
(0.75 0.659091 0.659091)
(0.795455 0.659091 0.659091)
(0.840909 0.659091 0.659091)
(0.886364 0.659091 0.659091)
(0.931818 0.659091 0.659091)
(0.977273 0.659091 0.659091)
(0.522727 0.704545 0.659091)
(0.568182 0.704545 0.659091)
(0.613636 0.704545 0.659091)
(0.659091 0.704545 0.659091)
(0.704545 0.704545 0.659091)
(0.75 0.704545 0.659091)
(0.795455 0.704545 0.659091)
(0.840909 0.704545 0.659091)
(0.886364 0.704545 0.659091)
(0.931818 0.704545 0.659091)
(0.977273 0.704545 0.659091)
(0.522727 0.75 0.659091)
(0.568182 0.75 0.659091)
(0.613636 0.75 0.659091)
(0.659091 0.75 0.659091)
(0.704545 0.75 0.659091)
(0.75 0.75 0.659091)
(0.795455 0.75 0.659091)
(0.840909 0.75 0.659091)
(0.886364 0.75 0.659091)
(0.931818 0.75 0.659091)
(0.977273 0.75 0.659091)
(0.522727 0.795455 0.659091)
(0.568182 0.795455 0.659091)
(0.613636 0.795455 0.659091)
(0.659091 0.795455 0.659091)
(0.704545 0.795455 0.659091)
(0.75 0.795455 0.659091)
(0.795455 0.795455 0.659091)
(0.840909 0.795455 0.659091)
(0.886364 0.795455 0.659091)
(0.931818 0.795455 0.659091)
(0.977273 0.795455 0.659091)
(0.522727 0.840909 0.659091)
(0.568182 0.840909 0.659091)
(0.613636 0.840909 0.659091)
(0.659091 0.840909 0.659091)
(0.704545 0.840909 0.659091)
(0.75 0.840909 0.659091)
(0.795455 0.840909 0.659091)
(0.840909 0.840909 0.659091)
(0.886364 0.840909 0.659091)
(0.931818 0.840909 0.659091)
(0.977273 0.840909 0.659091)
(0.522727 0.886364 0.659091)
(0.568182 0.886364 0.659091)
(0.613636 0.886364 0.659091)
(0.659091 0.886364 0.659091)
(0.704545 0.886364 0.659091)
(0.75 0.886364 0.659091)
(0.795455 0.886364 0.659091)
(0.840909 0.886364 0.659091)
(0.886364 0.886364 0.659091)
(0.931818 0.886364 0.659091)
(0.977273 0.886364 0.659091)
(0.522727 0.931818 0.659091)
(0.568182 0.931818 0.659091)
(0.613636 0.931818 0.659091)
(0.659091 0.931818 0.659091)
(0.704545 0.931818 0.659091)
(0.75 0.931818 0.659091)
(0.795455 0.931818 0.659091)
(0.840909 0.931818 0.659091)
(0.886364 0.931818 0.659091)
(0.931818 0.931818 0.659091)
(0.977273 0.931818 0.659091)
(0.522727 0.977273 0.659091)
(0.568182 0.977273 0.659091)
(0.613636 0.977273 0.659091)
(0.659091 0.977273 0.659091)
(0.704545 0.977273 0.659091)
(0.75 0.977273 0.659091)
(0.795455 0.977273 0.659091)
(0.840909 0.977273 0.659091)
(0.886364 0.977273 0.659091)
(0.931818 0.977273 0.659091)
(0.977273 0.977273 0.659091)
(0.522727 0.522727 0.704545)
(0.568182 0.522727 0.704545)
(0.613636 0.522727 0.704545)
(0.659091 0.522727 0.704545)
(0.704545 0.522727 0.704545)
(0.75 0.522727 0.704545)
(0.795455 0.522727 0.704545)
(0.840909 0.522727 0.704545)
(0.886364 0.522727 0.704545)
(0.931818 0.522727 0.704545)
(0.977273 0.522727 0.704545)
(0.522727 0.568182 0.704545)
(0.568182 0.568182 0.704545)
(0.613636 0.568182 0.704545)
(0.659091 0.568182 0.704545)
(0.704545 0.568182 0.704545)
(0.75 0.568182 0.704545)
(0.795455 0.568182 0.704545)
(0.840909 0.568182 0.704545)
(0.886364 0.568182 0.704545)
(0.931818 0.568182 0.704545)
(0.977273 0.568182 0.704545)
(0.522727 0.613636 0.704545)
(0.568182 0.613636 0.704545)
(0.613636 0.613636 0.704545)
(0.659091 0.613636 0.704545)
(0.704545 0.613636 0.704545)
(0.75 0.613636 0.704545)
(0.795455 0.613636 0.704545)
(0.840909 0.613636 0.704545)
(0.886364 0.613636 0.704545)
(0.931818 0.613636 0.704545)
(0.977273 0.613636 0.704545)
(0.522727 0.659091 0.704545)
(0.568182 0.659091 0.704545)
(0.613636 0.659091 0.704545)
(0.659091 0.659091 0.704545)
(0.704545 0.659091 0.704545)
(0.75 0.659091 0.704545)
(0.795455 0.659091 0.704545)
(0.840909 0.659091 0.704545)
(0.886364 0.659091 0.704545)
(0.931818 0.659091 0.704545)
(0.977273 0.659091 0.704545)
(0.522727 0.704545 0.704545)
(0.568182 0.704545 0.704545)
(0.613636 0.704545 0.704545)
(0.659091 0.704545 0.704545)
(0.704545 0.704545 0.704545)
(0.75 0.704545 0.704545)
(0.795455 0.704545 0.704545)
(0.840909 0.704545 0.704545)
(0.886364 0.704545 0.704545)
(0.931818 0.704545 0.704545)
(0.977273 0.704545 0.704545)
(0.522727 0.75 0.704545)
(0.568182 0.75 0.704545)
(0.613636 0.75 0.704545)
(0.659091 0.75 0.704545)
(0.704545 0.75 0.704545)
(0.75 0.75 0.704545)
(0.795455 0.75 0.704545)
(0.840909 0.75 0.704545)
(0.886364 0.75 0.704545)
(0.931818 0.75 0.704545)
(0.977273 0.75 0.704545)
(0.522727 0.795455 0.704545)
(0.568182 0.795455 0.704545)
(0.613636 0.795455 0.704545)
(0.659091 0.795455 0.704545)
(0.704545 0.795455 0.704545)
(0.75 0.795455 0.704545)
(0.795455 0.795455 0.704545)
(0.840909 0.795455 0.704545)
(0.886364 0.795455 0.704545)
(0.931818 0.795455 0.704545)
(0.977273 0.795455 0.704545)
(0.522727 0.840909 0.704545)
(0.568182 0.840909 0.704545)
(0.613636 0.840909 0.704545)
(0.659091 0.840909 0.704545)
(0.704545 0.840909 0.704545)
(0.75 0.840909 0.704545)
(0.795455 0.840909 0.704545)
(0.840909 0.840909 0.704545)
(0.886364 0.840909 0.704545)
(0.931818 0.840909 0.704545)
(0.977273 0.840909 0.704545)
(0.522727 0.886364 0.704545)
(0.568182 0.886364 0.704545)
(0.613636 0.886364 0.704545)
(0.659091 0.886364 0.704545)
(0.704545 0.886364 0.704545)
(0.75 0.886364 0.704545)
(0.795455 0.886364 0.704545)
(0.840909 0.886364 0.704545)
(0.886364 0.886364 0.704545)
(0.931818 0.886364 0.704545)
(0.977273 0.886364 0.704545)
(0.522727 0.931818 0.704545)
(0.568182 0.931818 0.704545)
(0.613636 0.931818 0.704545)
(0.659091 0.931818 0.704545)
(0.704545 0.931818 0.704545)
(0.75 0.931818 0.704545)
(0.795455 0.931818 0.704545)
(0.840909 0.931818 0.704545)
(0.886364 0.931818 0.704545)
(0.931818 0.931818 0.704545)
(0.977273 0.931818 0.704545)
(0.522727 0.977273 0.704545)
(0.568182 0.977273 0.704545)
(0.613636 0.977273 0.704545)
(0.659091 0.977273 0.704545)
(0.704545 0.977273 0.704545)
(0.75 0.977273 0.704545)
(0.795455 0.977273 0.704545)
(0.840909 0.977273 0.704545)
(0.886364 0.977273 0.704545)
(0.931818 0.977273 0.704545)
(0.977273 0.977273 0.704545)
(0.522727 0.522727 0.75)
(0.568182 0.522727 0.75)
(0.613636 0.522727 0.75)
(0.659091 0.522727 0.75)
(0.704545 0.522727 0.75)
(0.75 0.522727 0.75)
(0.795455 0.522727 0.75)
(0.840909 0.522727 0.75)
(0.886364 0.522727 0.75)
(0.931818 0.522727 0.75)
(0.977273 0.522727 0.75)
(0.522727 0.568182 0.75)
(0.568182 0.568182 0.75)
(0.613636 0.568182 0.75)
(0.659091 0.568182 0.75)
(0.704545 0.568182 0.75)
(0.75 0.568182 0.75)
(0.795455 0.568182 0.75)
(0.840909 0.568182 0.75)
(0.886364 0.568182 0.75)
(0.931818 0.568182 0.75)
(0.977273 0.568182 0.75)
(0.522727 0.613636 0.75)
(0.568182 0.613636 0.75)
(0.613636 0.613636 0.75)
(0.659091 0.613636 0.75)
(0.704545 0.613636 0.75)
(0.75 0.613636 0.75)
(0.795455 0.613636 0.75)
(0.840909 0.613636 0.75)
(0.886364 0.613636 0.75)
(0.931818 0.613636 0.75)
(0.977273 0.613636 0.75)
(0.522727 0.659091 0.75)
(0.568182 0.659091 0.75)
(0.613636 0.659091 0.75)
(0.659091 0.659091 0.75)
(0.704545 0.659091 0.75)
(0.75 0.659091 0.75)
(0.795455 0.659091 0.75)
(0.840909 0.659091 0.75)
(0.886364 0.659091 0.75)
(0.931818 0.659091 0.75)
(0.977273 0.659091 0.75)
(0.522727 0.704545 0.75)
(0.568182 0.704545 0.75)
(0.613636 0.704545 0.75)
(0.659091 0.704545 0.75)
(0.704545 0.704545 0.75)
(0.75 0.704545 0.75)
(0.795455 0.704545 0.75)
(0.840909 0.704545 0.75)
(0.886364 0.704545 0.75)
(0.931818 0.704545 0.75)
(0.977273 0.704545 0.75)
(0.522727 0.75 0.75)
(0.568182 0.75 0.75)
(0.613636 0.75 0.75)
(0.659091 0.75 0.75)
(0.704545 0.75 0.75)
(0.75 0.75 0.75)
(0.795455 0.75 0.75)
(0.840909 0.75 0.75)
(0.886364 0.75 0.75)
(0.931818 0.75 0.75)
(0.977273 0.75 0.75)
(0.522727 0.795455 0.75)
(0.568182 0.795455 0.75)
(0.613636 0.795455 0.75)
(0.659091 0.795455 0.75)
(0.704545 0.795455 0.75)
(0.75 0.795455 0.75)
(0.795455 0.795455 0.75)
(0.840909 0.795455 0.75)
(0.886364 0.795455 0.75)
(0.931818 0.795455 0.75)
(0.977273 0.795455 0.75)
(0.522727 0.840909 0.75)
(0.568182 0.840909 0.75)
(0.613636 0.840909 0.75)
(0.659091 0.840909 0.75)
(0.704545 0.840909 0.75)
(0.75 0.840909 0.75)
(0.795455 0.840909 0.75)
(0.840909 0.840909 0.75)
(0.886364 0.840909 0.75)
(0.931818 0.840909 0.75)
(0.977273 0.840909 0.75)
(0.522727 0.886364 0.75)
(0.568182 0.886364 0.75)
(0.613636 0.886364 0.75)
(0.659091 0.886364 0.75)
(0.704545 0.886364 0.75)
(0.75 0.886364 0.75)
(0.795455 0.886364 0.75)
(0.840909 0.886364 0.75)
(0.886364 0.886364 0.75)
(0.931818 0.886364 0.75)
(0.977273 0.886364 0.75)
(0.522727 0.931818 0.75)
(0.568182 0.931818 0.75)
(0.613636 0.931818 0.75)
(0.659091 0.931818 0.75)
(0.704545 0.931818 0.75)
(0.75 0.931818 0.75)
(0.795455 0.931818 0.75)
(0.840909 0.931818 0.75)
(0.886364 0.931818 0.75)
(0.931818 0.931818 0.75)
(0.977273 0.931818 0.75)
(0.522727 0.977273 0.75)
(0.568182 0.977273 0.75)
(0.613636 0.977273 0.75)
(0.659091 0.977273 0.75)
(0.704545 0.977273 0.75)
(0.75 0.977273 0.75)
(0.795455 0.977273 0.75)
(0.840909 0.977273 0.75)
(0.886364 0.977273 0.75)
(0.931818 0.977273 0.75)
(0.977273 0.977273 0.75)
(0.522727 0.522727 0.795455)
(0.568182 0.522727 0.795455)
(0.613636 0.522727 0.795455)
(0.659091 0.522727 0.795455)
(0.704545 0.522727 0.795455)
(0.75 0.522727 0.795455)
(0.795455 0.522727 0.795455)
(0.840909 0.522727 0.795455)
(0.886364 0.522727 0.795455)
(0.931818 0.522727 0.795455)
(0.977273 0.522727 0.795455)
(0.522727 0.568182 0.795455)
(0.568182 0.568182 0.795455)
(0.613636 0.568182 0.795455)
(0.659091 0.568182 0.795455)
(0.704545 0.568182 0.795455)
(0.75 0.568182 0.795455)
(0.795455 0.568182 0.795455)
(0.840909 0.568182 0.795455)
(0.886364 0.568182 0.795455)
(0.931818 0.568182 0.795455)
(0.977273 0.568182 0.795455)
(0.522727 0.613636 0.795455)
(0.568182 0.613636 0.795455)
(0.613636 0.613636 0.795455)
(0.659091 0.613636 0.795455)
(0.704545 0.613636 0.795455)
(0.75 0.613636 0.795455)
(0.795455 0.613636 0.795455)
(0.840909 0.613636 0.795455)
(0.886364 0.613636 0.795455)
(0.931818 0.613636 0.795455)
(0.977273 0.613636 0.795455)
(0.522727 0.659091 0.795455)
(0.568182 0.659091 0.795455)
(0.613636 0.659091 0.795455)
(0.659091 0.659091 0.795455)
(0.704545 0.659091 0.795455)
(0.75 0.659091 0.795455)
(0.795455 0.659091 0.795455)
(0.840909 0.659091 0.795455)
(0.886364 0.659091 0.795455)
(0.931818 0.659091 0.795455)
(0.977273 0.659091 0.795455)
(0.522727 0.704545 0.795455)
(0.568182 0.704545 0.795455)
(0.613636 0.704545 0.795455)
(0.659091 0.704545 0.795455)
(0.704545 0.704545 0.795455)
(0.75 0.704545 0.795455)
(0.795455 0.704545 0.795455)
(0.840909 0.704545 0.795455)
(0.886364 0.704545 0.795455)
(0.931818 0.704545 0.795455)
(0.977273 0.704545 0.795455)
(0.522727 0.75 0.795455)
(0.568182 0.75 0.795455)
(0.613636 0.75 0.795455)
(0.659091 0.75 0.795455)
(0.704545 0.75 0.795455)
(0.75 0.75 0.795455)
(0.795455 0.75 0.795455)
(0.840909 0.75 0.795455)
(0.886364 0.75 0.795455)
(0.931818 0.75 0.795455)
(0.977273 0.75 0.795455)
(0.522727 0.795455 0.795455)
(0.568182 0.795455 0.795455)
(0.613636 0.795455 0.795455)
(0.659091 0.795455 0.795455)
(0.704545 0.795455 0.795455)
(0.75 0.795455 0.795455)
(0.795455 0.795455 0.795455)
(0.840909 0.795455 0.795455)
(0.886364 0.795455 0.795455)
(0.931818 0.795455 0.795455)
(0.977273 0.795455 0.795455)
(0.522727 0.840909 0.795455)
(0.568182 0.840909 0.795455)
(0.613636 0.840909 0.795455)
(0.659091 0.840909 0.795455)
(0.704545 0.840909 0.795455)
(0.75 0.840909 0.795455)
(0.795455 0.840909 0.795455)
(0.840909 0.840909 0.795455)
(0.886364 0.840909 0.795455)
(0.931818 0.840909 0.795455)
(0.977273 0.840909 0.795455)
(0.522727 0.886364 0.795455)
(0.568182 0.886364 0.795455)
(0.613636 0.886364 0.795455)
(0.659091 0.886364 0.795455)
(0.704545 0.886364 0.795455)
(0.75 0.886364 0.795455)
(0.795455 0.886364 0.795455)
(0.840909 0.886364 0.795455)
(0.886364 0.886364 0.795455)
(0.931818 0.886364 0.795455)
(0.977273 0.886364 0.795455)
(0.522727 0.931818 0.795455)
(0.568182 0.931818 0.795455)
(0.613636 0.931818 0.795455)
(0.659091 0.931818 0.795455)
(0.704545 0.931818 0.795455)
(0.75 0.931818 0.795455)
(0.795455 0.931818 0.795455)
(0.840909 0.931818 0.795455)
(0.886364 0.931818 0.795455)
(0.931818 0.931818 0.795455)
(0.977273 0.931818 0.795455)
(0.522727 0.977273 0.795455)
(0.568182 0.977273 0.795455)
(0.613636 0.977273 0.795455)
(0.659091 0.977273 0.795455)
(0.704545 0.977273 0.795455)
(0.75 0.977273 0.795455)
(0.795455 0.977273 0.795455)
(0.840909 0.977273 0.795455)
(0.886364 0.977273 0.795455)
(0.931818 0.977273 0.795455)
(0.977273 0.977273 0.795455)
(0.522727 0.522727 0.840909)
(0.568182 0.522727 0.840909)
(0.613636 0.522727 0.840909)
(0.659091 0.522727 0.840909)
(0.704545 0.522727 0.840909)
(0.75 0.522727 0.840909)
(0.795455 0.522727 0.840909)
(0.840909 0.522727 0.840909)
(0.886364 0.522727 0.840909)
(0.931818 0.522727 0.840909)
(0.977273 0.522727 0.840909)
(0.522727 0.568182 0.840909)
(0.568182 0.568182 0.840909)
(0.613636 0.568182 0.840909)
(0.659091 0.568182 0.840909)
(0.704545 0.568182 0.840909)
(0.75 0.568182 0.840909)
(0.795455 0.568182 0.840909)
(0.840909 0.568182 0.840909)
(0.886364 0.568182 0.840909)
(0.931818 0.568182 0.840909)
(0.977273 0.568182 0.840909)
(0.522727 0.613636 0.840909)
(0.568182 0.613636 0.840909)
(0.613636 0.613636 0.840909)
(0.659091 0.613636 0.840909)
(0.704545 0.613636 0.840909)
(0.75 0.613636 0.840909)
(0.795455 0.613636 0.840909)
(0.840909 0.613636 0.840909)
(0.886364 0.613636 0.840909)
(0.931818 0.613636 0.840909)
(0.977273 0.613636 0.840909)
(0.522727 0.659091 0.840909)
(0.568182 0.659091 0.840909)
(0.613636 0.659091 0.840909)
(0.659091 0.659091 0.840909)
(0.704545 0.659091 0.840909)
(0.75 0.659091 0.840909)
(0.795455 0.659091 0.840909)
(0.840909 0.659091 0.840909)
(0.886364 0.659091 0.840909)
(0.931818 0.659091 0.840909)
(0.977273 0.659091 0.840909)
(0.522727 0.704545 0.840909)
(0.568182 0.704545 0.840909)
(0.613636 0.704545 0.840909)
(0.659091 0.704545 0.840909)
(0.704545 0.704545 0.840909)
(0.75 0.704545 0.840909)
(0.795455 0.704545 0.840909)
(0.840909 0.704545 0.840909)
(0.886364 0.704545 0.840909)
(0.931818 0.704545 0.840909)
(0.977273 0.704545 0.840909)
(0.522727 0.75 0.840909)
(0.568182 0.75 0.840909)
(0.613636 0.75 0.840909)
(0.659091 0.75 0.840909)
(0.704545 0.75 0.840909)
(0.75 0.75 0.840909)
(0.795455 0.75 0.840909)
(0.840909 0.75 0.840909)
(0.886364 0.75 0.840909)
(0.931818 0.75 0.840909)
(0.977273 0.75 0.840909)
(0.522727 0.795455 0.840909)
(0.568182 0.795455 0.840909)
(0.613636 0.795455 0.840909)
(0.659091 0.795455 0.840909)
(0.704545 0.795455 0.840909)
(0.75 0.795455 0.840909)
(0.795455 0.795455 0.840909)
(0.840909 0.795455 0.840909)
(0.886364 0.795455 0.840909)
(0.931818 0.795455 0.840909)
(0.977273 0.795455 0.840909)
(0.522727 0.840909 0.840909)
(0.568182 0.840909 0.840909)
(0.613636 0.840909 0.840909)
(0.659091 0.840909 0.840909)
(0.704545 0.840909 0.840909)
(0.75 0.840909 0.840909)
(0.795455 0.840909 0.840909)
(0.840909 0.840909 0.840909)
(0.886364 0.840909 0.840909)
(0.931818 0.840909 0.840909)
(0.977273 0.840909 0.840909)
(0.522727 0.886364 0.840909)
(0.568182 0.886364 0.840909)
(0.613636 0.886364 0.840909)
(0.659091 0.886364 0.840909)
(0.704545 0.886364 0.840909)
(0.75 0.886364 0.840909)
(0.795455 0.886364 0.840909)
(0.840909 0.886364 0.840909)
(0.886364 0.886364 0.840909)
(0.931818 0.886364 0.840909)
(0.977273 0.886364 0.840909)
(0.522727 0.931818 0.840909)
(0.568182 0.931818 0.840909)
(0.613636 0.931818 0.840909)
(0.659091 0.931818 0.840909)
(0.704545 0.931818 0.840909)
(0.75 0.931818 0.840909)
(0.795455 0.931818 0.840909)
(0.840909 0.931818 0.840909)
(0.886364 0.931818 0.840909)
(0.931818 0.931818 0.840909)
(0.977273 0.931818 0.840909)
(0.522727 0.977273 0.840909)
(0.568182 0.977273 0.840909)
(0.613636 0.977273 0.840909)
(0.659091 0.977273 0.840909)
(0.704545 0.977273 0.840909)
(0.75 0.977273 0.840909)
(0.795455 0.977273 0.840909)
(0.840909 0.977273 0.840909)
(0.886364 0.977273 0.840909)
(0.931818 0.977273 0.840909)
(0.977273 0.977273 0.840909)
(0.522727 0.522727 0.886364)
(0.568182 0.522727 0.886364)
(0.613636 0.522727 0.886364)
(0.659091 0.522727 0.886364)
(0.704545 0.522727 0.886364)
(0.75 0.522727 0.886364)
(0.795455 0.522727 0.886364)
(0.840909 0.522727 0.886364)
(0.886364 0.522727 0.886364)
(0.931818 0.522727 0.886364)
(0.977273 0.522727 0.886364)
(0.522727 0.568182 0.886364)
(0.568182 0.568182 0.886364)
(0.613636 0.568182 0.886364)
(0.659091 0.568182 0.886364)
(0.704545 0.568182 0.886364)
(0.75 0.568182 0.886364)
(0.795455 0.568182 0.886364)
(0.840909 0.568182 0.886364)
(0.886364 0.568182 0.886364)
(0.931818 0.568182 0.886364)
(0.977273 0.568182 0.886364)
(0.522727 0.613636 0.886364)
(0.568182 0.613636 0.886364)
(0.613636 0.613636 0.886364)
(0.659091 0.613636 0.886364)
(0.704545 0.613636 0.886364)
(0.75 0.613636 0.886364)
(0.795455 0.613636 0.886364)
(0.840909 0.613636 0.886364)
(0.886364 0.613636 0.886364)
(0.931818 0.613636 0.886364)
(0.977273 0.613636 0.886364)
(0.522727 0.659091 0.886364)
(0.568182 0.659091 0.886364)
(0.613636 0.659091 0.886364)
(0.659091 0.659091 0.886364)
(0.704545 0.659091 0.886364)
(0.75 0.659091 0.886364)
(0.795455 0.659091 0.886364)
(0.840909 0.659091 0.886364)
(0.886364 0.659091 0.886364)
(0.931818 0.659091 0.886364)
(0.977273 0.659091 0.886364)
(0.522727 0.704545 0.886364)
(0.568182 0.704545 0.886364)
(0.613636 0.704545 0.886364)
(0.659091 0.704545 0.886364)
(0.704545 0.704545 0.886364)
(0.75 0.704545 0.886364)
(0.795455 0.704545 0.886364)
(0.840909 0.704545 0.886364)
(0.886364 0.704545 0.886364)
(0.931818 0.704545 0.886364)
(0.977273 0.704545 0.886364)
(0.522727 0.75 0.886364)
(0.568182 0.75 0.886364)
(0.613636 0.75 0.886364)
(0.659091 0.75 0.886364)
(0.704545 0.75 0.886364)
(0.75 0.75 0.886364)
(0.795455 0.75 0.886364)
(0.840909 0.75 0.886364)
(0.886364 0.75 0.886364)
(0.931818 0.75 0.886364)
(0.977273 0.75 0.886364)
(0.522727 0.795455 0.886364)
(0.568182 0.795455 0.886364)
(0.613636 0.795455 0.886364)
(0.659091 0.795455 0.886364)
(0.704545 0.795455 0.886364)
(0.75 0.795455 0.886364)
(0.795455 0.795455 0.886364)
(0.840909 0.795455 0.886364)
(0.886364 0.795455 0.886364)
(0.931818 0.795455 0.886364)
(0.977273 0.795455 0.886364)
(0.522727 0.840909 0.886364)
(0.568182 0.840909 0.886364)